# Lammps simulation

10000 atoms

2 atom types

0.0000 98.8045 xlo xhi
0.0000 98.8045 ylo yhi
-0.098805 0.098805 zlo zhi
3.060960 0.000000 0.000000 xy xz yz

Masses

1  1.0
2  1.0

Atoms

605 2 1.05836481153444 1.23885916630676 0.0
8 1 1.0381258904295 0.145944077566371 0.0
5248 2 0.0321256187003665 0.549897906074608 0.0
5099 1 1.67625317241935 0.348473258043962 0.0
4909 1 2.30536979173252 0.144348513446308 0.0
4807 2 2.31842997562381 1.25106083804394 0.0
9999 2 3.33681573933912 0.506081011655518 0.0
4905 2 4.57996601323726 0.507042790106328 0.0
5648 1 5.60208763714956 0.897918691656616 0.0
269 1 5.62518102247441 0.216092471755143 0.0
212 2 6.65776685195645 0.56655277551207 0.0
4805 1 7.7071902328205 0.227577998402238 0.0
56 1 7.70717526382176 0.896708960663164 0.0
107 2 8.75954034840062 0.57665831640701 0.0
4764 2 10.025506028211 0.604898067688364 0.0
203 1 11.0671386933936 0.991783533683913 0.0
4604 1 11.0964152726884 0.323597650497561 0.0
4713 2 12.1342219851431 0.789712785907687 0.0
465 2 13.4117107728495 0.934503310396122 0.0
101 1 14.5224306357082 0.765269689056588 0.0
407 1 15.048050908522 1.23378052250048 0.0
16 1 14.8343094332975 0.182680224856502 0.0
4823 2 15.8479777829907 0.496554949848586 0.0
116 1 16.8539679490825 0.945566284244463 0.0
4874 2 17.9202147378567 0.733867375012221 0.0
76 2 19.1700822706978 0.837571996834237 0.0
81 1 20.240005576982 0.525917044882465 0.0
275 1 20.8756097010897 0.78174127618115 0.0
4877 1 21.5291909822895 0.608758309013911 0.0
422 1 21.9521251020397 0.0876439810697048 0.0
4976 2 22.5754486820873 0.999576355834279 0.0
69 1 23.234351681715 0.126330950482729 0.0
121 2 23.8584331500802 1.04833723936702 0.0
473 2 24.9134258787515 0.369464492996226 0.0
429 2 25.9644488440993 1.09571606816028 0.0
4733 1 26.6227777290901 0.212739686152038 0.0
4984 1 25.9751623901236 0.00927957173134378 0.0
4531 1 27.9388267629955 0.223573112040951 0.0
26 2 27.2366956281007 1.12531792732656 0.0
4535 1 27.2772657036937 0.0296838428273991 0.0
530 1 28.2905877219893 0.796260699509412 0.0
4934 2 29.2708992452701 1.30784086661677 0.0
33 2 29.075337670837 0.0303686159424588 0.0
4291 1 30.0804337101622 0.619415231829532 0.0
4731 1 30.3605632764052 1.25973454164233 0.0
3349 1 46.6242354155239 49.3881745198933 0.0
130 2 31.1592286077837 0.525542090186889 0.0
288 2 32.3223172518544 0.907694033397225 0.0
4787 1 33.2403130209166 0.29257762122438 0.0
4981 2 34.3191402431172 0.531870754644291 0.0
142 1 35.365898309852 0.952107595497727 0.0
4875 1 35.4030276351975 0.304195228899068 0.0
79 2 36.4648134021059 0.743304462106696 0.0
4791 2 37.7487780036109 0.836335022978858 0.0
346 2 38.8691376296578 0.259144783622963 0.0
4946 1 39.4158336467155 1.22244681328505 0.0
144 2 40.2413757032074 0.410643470790767 0.0
545 1 41.3520957243138 0.114385236572009 0.0
4940 2 41.5727263016568 1.20802729549412 0.0
4895 2 42.4530762286019 0.342307071124622 0.0
246 2 43.7487359272306 0.382279599247376 0.0
5451 1 44.6569392658043 1.04535387148622 0.0
197 2 44.9761053176664 0.00674860858598745 0.0
5004 1 45.3443323014846 1.03004431664422 0.0
5154 2 46.211725044145 0.336646478239552 0.0
5751 1 47.3205756018786 0.323259965656194 0.0
5352 2 47.0225013028959 1.37682392843764 0.0
646 2 48.2277380768544 0.971689852453836 0.0
608 1 1.02254231920752 2.32762302378025 0.0
12 1 0.544619505267881 2.79249610612253 0.0
9989 1 1.67254912315695 2.13490897261879 0.0
9850 2 2.71479913333915 2.49854102423723 0.0
167 1 3.98430212464505 1.41643802468423 0.0
4765 1 3.35087466900679 1.61155365380955 0.0
201 2 3.99365647327273 2.51750772341327 0.0
263 1 5.31790952712888 1.52739912378301 0.0
5645 1 4.63540759589806 1.60597586132192 0.0
5196 1 5.02848977194635 2.14937166750833 0.0
6 1 5.99513751883192 1.44228470863102 0.0
560 2 6.04503691402216 2.52862413135026 0.0
354 2 7.05742067636758 1.78265811787008 0.0
251 2 8.34420013468485 1.78894459182958 0.0
408 1 7.72257136470093 2.6834849739907 0.0
604 1 9.38469735695888 1.48959357907771 0.0
559 2 9.40313587070083 2.59395615788251 0.0
4868 1 10.6529752604304 1.50624050409876 0.0
756 1 10.0174013600213 1.69855848391783 0.0
119 2 10.6558907017576 2.5921607002027 0.0
159 2 11.6619159773654 1.93609361085042 0.0
277 1 12.6216047628209 2.47731680105563 0.0
413 1 12.7248807719155 1.78571367895824 0.0
315 2 13.7108815776871 2.25399773977258 0.0
4973 1 14.4047884731157 1.4210829501947 0.0
369 2 15.01180382666 2.34117929724283 0.0
265 2 16.0920793009257 1.73254556204747 0.0
68 2 17.1119251038783 2.650856478461 0.0
4817 1 17.1891420437142 1.55020080643719 0.0
4873 1 17.832444275274 1.83129355842637 0.0
324 1 18.4989355692137 1.70524072976662 0.0
325 1 19.1325392047867 1.97889109341398 0.0
4726 1 19.5372101144613 2.5792397147765 0.0
4966 2 18.4177337412303 2.80891909297686 0.0
4878 2 20.157523877378 1.61064042506397 0.0
120 2 20.6653621428229 2.71226826070266 0.0
14 2 21.5003527494808 1.70752212507807 0.0
169 1 22.5934236729153 2.06962845883377 0.0
270 1 23.2348069463357 1.92943762372357 0.0
479 1 23.8698550606532 2.15429295503358 0.0
24 2 24.9084889021341 1.79341713378892 0.0
634 1 24.2645165310367 2.70241260473975 0.0
84 1 25.9417471730276 2.18987110032142 0.0
319 1 26.5796811689916 2.00921411570777 0.0
474 1 27.2030620270801 2.23918150964878 0.0
228 2 28.2233775888681 1.89101259692379 0.0
4816 1 27.6067542820405 2.7859024412436 0.0
1019 2 29.312253094647 2.58667523871335 0.0
876 1 30.2127286760627 1.91647418103415 0.0
232 2 31.3480534910679 1.78700398487197 0.0
4736 1 32.5001139953765 1.97196747304887 0.0
4977 2 33.4550953037592 1.43317921064454 0.0
4637 1 33.0018993554702 2.44612006321784 0.0
30 2 34.6614197416002 1.7709715982571 0.0
4935 2 35.876851869878 1.90653666699541 0.0
4982 2 37.1164013630915 1.89855130553459 0.0
4839 1 38.0584014350748 2.45579589797561 0.0
4937 1 38.7463325618237 1.35571357980248 0.0
4437 1 38.2491315195505 1.81544672187433 0.0
92 2 39.2339731744056 2.35545725482053 0.0
437 2 40.4201589472313 1.65793066652621 0.0
50 1 41.4754873082925 2.31742770206437 0.0
494 1 42.142073113186 2.14438220984633 0.0
5303 2 43.0052116245983 1.47358264220687 0.0
838 1 44.1124888240855 1.43729997542593 0.0
5402 1 43.933784781219 2.08464833299176 0.0
286 2 45.0413143664888 2.07786341640467 0.0
5301 1 45.9123992459159 1.39156691204569 0.0
48 2 46.3047462234739 2.4139716830608 0.0
4942 1 47.4038478861392 2.41984460750684 0.0
5266 1 47.9399737402992 2.02965955844015 0.0
4896 1 48.6125331999709 2.03457458270532 0.0
349 1 49.1762037866823 2.42739999078315 0.0
351 2 0.625452421073024 3.85254232787505 0.0
156 2 1.67378019607534 3.21781251425159 0.0
812 1 2.71535165334917 3.59880396449546 0.0
4813 1 2.31605071767363 4.13291003494677 0.0
4308 1 3.35678443559342 3.409724850891 0.0
4 1 3.99231356963638 3.62931715365669 0.0
453 2 5.02603411132888 3.26948307110268 0.0
611 1 5.6735832218828 4.16644546538494 0.0
174 1 6.07281165749499 3.63466240620252 0.0
4753 1 6.70535656498491 3.42675412434991 0.0
59 1 7.09140856098151 2.88705337276773 0.0
151 1 8.36047008222966 2.89094059150974 0.0
216 2 7.75282922495234 3.79334020284328 0.0
562 2 9.02981437635357 3.7811902660012 0.0
104 1 10.0781411583028 3.49479536761889 0.0
506 1 10.7425193388735 3.66821573972515 0.0
515 2 11.7977257003012 3.25658455449998 0.0
60 2 13.1831026273597 3.44493160691665 0.0
4929 1 14.2921740056107 3.17639317286418 0.0
22 1 14.938697383183 3.42494781790883 0.0
225 1 16.0305804187649 2.82587406423785 0.0
4772 1 15.5915837348322 3.32101698746497 0.0
4862 2 16.5848022270138 3.80513287527585 0.0
327 1 17.6649082106557 3.6125541756635 0.0
20 2 18.6684700153175 4.07090535114876 0.0
331 2 19.8956239706275 3.70847980701634 0.0
317 2 21.200052527233 3.82998130131822 0.0
318 2 21.9385352013074 2.8930212078032 0.0
433 2 22.4413344598506 4.05967409078182 0.0
381 2 23.2038856849282 3.03598827274658 0.0
518 1 24.2604826887712 3.38127358165064 0.0
220 1 24.6574832284285 3.94392360590953 0.0
73 2 25.3097184152851 3.06560302366961 0.0
4979 2 26.5652300408347 3.12168740313883 0.0
1213 1 25.9250855236836 3.99977869016872 0.0
577 2 27.612740047549 3.88424890590979 0.0
390 1 28.2560966728407 2.97738926178842 0.0
4926 1 28.6574086619549 3.50545097399037 0.0
382 1 28.6705650181399 4.1820691752061 0.0
624 2 29.7098605399673 3.77697161675236 0.0
168 2 30.6638430240934 2.91695103119398 0.0
571 1 30.7668203525957 4.02429650919866 0.0
83 2 31.9568345335251 2.89165222872535 0.0
1064 1 31.3780105123055 3.78849674060407 0.0
328 2 32.457103006686 4.05838528246985 0.0
28 1 33.0320794319532 3.12166928656961 0.0
374 2 33.7202000478419 3.99375035472949 0.0
138 2 34.0841545418943 2.82514464863 0.0
4644 1 34.9808839113852 3.50572465696372 0.0
580 1 35.2343620525836 2.84330378549462 0.0
131 2 36.3990003509247 3.01054931717336 0.0
243 1 37.5272013288139 2.91634995230778 0.0
179 2 37.2071369502521 3.98300378131967 0.0
143 2 38.5052243630865 3.43441242335814 0.0
348 1 39.6091007546891 3.42647481148516 0.0
236 2 40.5184673670497 2.86248881469901 0.0
445 1 40.1803420357307 3.90191596157175 0.0
342 1 41.9849954365538 2.79002226375187 0.0
4591 1 41.5141366868799 3.24257430198691 0.0
100 2 43.0773837805258 2.77193986872513 0.0
293 2 42.4005060348126 3.87048457933774 0.0
387 1 43.4841896271851 3.80537757798715 0.0
548 2 44.3339877253727 3.11739829706453 0.0
93 2 45.1249929647996 4.13853688704447 0.0
5651 1 45.4370475808674 3.09214484256572 0.0
498 1 45.9912726952709 3.46192621436346 0.0
396 2 47.0902337809974 3.46497012876792 0.0
443 1 47.9972453984394 4.13734345803337 0.0
295 2 48.3008678207445 3.09257741392414 0.0
290 1 48.6620629493447 4.16270102806097 0.0
4709 1 0.562881046596229 4.94059896435074 0.0
4356 1 1.22085687621914 4.77328502812407 0.0
309 1 1.67771617444696 4.30756199354184 0.0
5496 2 2.30703246951146 5.24737220145011 0.0
4956 2 3.34257829758364 4.51856350367367 0.0
357 2 4.62666863359783 4.53941985522403 0.0
9997 1 5.70670775948077 4.82733708545647 0.0
561 2 6.7503196639901 4.52743884621962 0.0
162 1 7.80203035968061 4.88601120651028 0.0
860 1 7.41379808077455 5.42061447970654 0.0
409 1 8.43545930010686 4.68352985877771 0.0
410 1 9.08332604032005 4.88351965091775 0.0
202 1 11.1552822427223 4.19153705751826 0.0
363 2 10.1238854853446 4.5798927917827 0.0
268 1 10.8370872642164 5.45084136276669 0.0
712 1 11.1817115172431 4.88036777682576 0.0
4914 2 12.1922717654812 4.49662247851981 0.0
4810 1 12.9566284550743 5.34686303841023 0.0
207 1 13.5984573553596 5.08838418135806 0.0
713 1 13.2410735154237 4.54449198745488 0.0
312 2 14.2721807195517 4.25590362272282 0.0
507 2 14.6578874432252 5.44163253426176 0.0
122 2 15.5061408468204 4.42832103255765 0.0
366 2 16.818966378886 5.08092368778283 0.0
565 1 15.8040067420123 5.49165140608178 0.0
261 1 17.5849894976966 4.28529521910375 0.0
4871 1 17.9028863803525 4.88917182641535 0.0
219 1 18.507711422989 5.18236331044 0.0
221 2 19.5645427171431 4.95016049859354 0.0
523 1 20.5868402579978 4.67320312311295 0.0
4779 1 20.6208230532646 5.3266747089476 0.0
379 2 21.6810079923839 5.00789574702495 0.0
323 2 23.6283456970172 4.27221089342989 0.0
970 1 22.8329325266135 5.16901412547566 0.0
373 1 23.5252652215585 5.33561372245988 0.0
139 1 25.2824684016444 4.18275285849445 0.0
222 2 24.6249206378042 5.06824693881233 0.0
180 1 26.5673188460406 4.22233800908067 0.0
632 2 25.90964767744 5.09812899796123 0.0
276 1 26.9797591672088 5.44772780162364 0.0
519 1 26.9686041485539 4.77238333299013 0.0
628 2 28.0363274635156 5.10932041145003 0.0
4722 1 29.0927945179554 4.69726572944438 0.0
332 2 30.1871502209592 4.94575559069457 0.0
528 2 31.4870034578484 4.87293321470232 0.0
135 1 32.5541509024465 5.14449519363073 0.0
229 1 33.179274937459 4.92096697449017 0.0
475 1 33.806610417181 5.17195641931191 0.0
436 2 34.7581276465949 4.6251064968467 0.0
392 2 35.9137152174491 4.1565554325012 0.0
134 1 35.6507335717519 5.23811381530105 0.0
193 2 36.7287991193822 5.18672832646598 0.0
86 1 37.7632650451424 4.97568824466588 0.0
4882 1 38.1726576076571 4.46314763021608 0.0
788 1 38.4120702344131 5.0875025502806 0.0
198 2 39.2484834892158 4.44371640837164 0.0
435 2 40.2726495758853 5.06380251187596 0.0
447 2 41.2185231032224 4.28818784514908 0.0
789 1 42.084335490133 4.96623947759871 0.0
296 2 43.1801721718288 4.87725401773406 0.0
385 1 44.0339916239953 4.1850657772954 0.0
347 1 44.2706038354161 4.81896359949889 0.0
598 1 44.1118476552035 5.47126343462208 0.0
594 2 45.2062139785838 5.39612910159162 0.0
497 2 46.3361730617843 4.49682219264342 0.0
492 1 47.4475693578128 4.49613997454941 0.0
9721 1 47.2600856137122 5.11898773428373 0.0
345 1 49.2127867462697 4.57123590926582 0.0
5054 2 48.3426374126248 5.20995139055594 0.0
5195 2 1.2034843919881 5.83674471175941 0.0
5650 2 0.589060798559026 6.88239700386925 0.0
5893 1 1.6780053297723 6.80893102294273 0.0
607 1 2.18944756837454 6.35215820798533 0.0
4952 1 2.87008401398324 6.26286073016874 0.0
4705 2 3.830940467863 5.67106925894078 0.0
452 1 3.42336650603771 6.68872506946879 0.0
53 2 5.13102074094883 5.72893162420436 0.0
361 2 4.53817440923851 6.76246830879558 0.0
13 1 5.70664302137397 6.76546677132484 0.0
3 2 6.36416623586749 5.73604353231018 0.0
102 1 6.4114013250191 6.81079592185841 0.0
61 1 7.0512830398883 6.63326691688105 0.0
602 1 7.4227925268595 6.08659648310276 0.0
67 2 8.47408214870631 5.77975880037153 0.0
566 2 8.11089725907633 6.9595437949829 0.0
4865 2 9.78845844796576 5.76749449831331 0.0
673 1 9.16177160397669 6.63386259103791 0.0
223 1 10.8462679671203 6.12542238894318 0.0
217 1 11.2436174109428 6.67476375768188 0.0
214 2 11.9055993137203 5.76280691870075 0.0
616 1 11.8569966004668 6.91713987138796 0.0
115 2 12.886176110328 6.58091531227826 0.0
355 1 13.5305582497543 5.72495053670849 0.0
463 2 14.147393561582 6.59309801614154 0.0
71 2 15.38655953419 6.48952106353722 0.0
511 2 16.6118507969195 6.36287865473336 0.0
218 2 17.806572200354 6.01859966682089 0.0
1013 1 18.8699299044798 5.77226072586303 0.0
4715 1 18.8871660767079 6.43835526942917 0.0
166 1 19.2617147644262 7.03732610630203 0.0
613 2 19.9398025323636 6.16916856783884 0.0
4866 1 21.0079409032148 5.86480883876209 0.0
175 2 20.9805090091359 6.9413528452337 0.0
226 2 22.0691494566939 6.17930926662899 0.0
522 1 23.0953524049173 5.83174200462769 0.0
520 2 23.1212921358342 6.94484243234926 0.0
4918 2 24.1578731349268 6.23287106285708 0.0
17 2 25.4582037622509 6.25076676708777 0.0
4867 1 26.5695892491206 5.9791688490842 0.0
826 1 27.2598155282977 6.07370792971094 0.0
926 1 28.2382290401562 6.18229161092452 0.0
617 2 29.2450999928098 5.77205064921276 0.0
427 1 28.6962708955141 6.70935842628841 0.0
428 2 29.7649186082939 6.97574846124002 0.0
581 1 30.911342830685 5.78961550934288 0.0
82 1 30.3054533871645 6.04060193816254 0.0
430 2 31.0295618218896 6.88717417087804 0.0
676 2 31.9714081564301 6.05163060309337 0.0
34 1 33.0722277302897 5.57857105952543 0.0
75 1 33.7068408531344 5.83606481748271 0.0
831 2 33.0184262688882 6.66225665275048 0.0
533 2 34.7838319402842 5.91186429351819 0.0
480 1 35.2410494451271 6.95676342504401 0.0
4834 1 35.8848946906156 5.86970362460348 0.0
147 1 35.7311623633143 6.51623386074663 0.0
285 2 36.824591712803 6.47386819935543 0.0
489 2 37.9887261428068 6.06097442119362 0.0
281 2 39.2367497458547 5.81028223931426 0.0
418 1 40.2785758559997 6.15900126362613 0.0
5302 1 39.9078234499701 6.71314797396348 0.0
94 1 42.3621637058713 5.59157229149017 0.0
136 2 41.2919786811131 5.74757108416445 0.0
39 2 42.1419510518151 6.68084766805133 0.0
184 2 43.2866402920445 6.19116814264782 0.0
597 2 44.5153824264903 6.49899098679696 0.0
240 2 46.3900733736297 5.72879086205826 0.0
9859 1 45.59575752369 6.43517369942635 0.0
5502 2 47.5496312900796 6.17321468009016 0.0
541 1 48.6212700268557 6.27766247120751 0.0
298 1 49.0282576326166 6.78831597640976 0.0
5447 1 0.997921971750669 7.90569303162922 0.0
4757 1 1.50129297737227 7.4674632973066 0.0
554 2 2.58053454020494 7.38992552409386 0.0
5500 1 3.63494419359104 7.34315307483008 0.0
4863 1 4.11416370001877 7.78887816121681 0.0
609 2 5.16229510476078 7.80523125722207 0.0
658 1 6.12279824827261 7.38759825440753 0.0
303 2 7.14754010613582 7.72950030992895 0.0
1017 1 8.1940068995229 8.05237221599883 0.0
113 1 8.80906058796807 7.82362518172133 0.0
509 1 9.17273960103621 7.28776062671436 0.0
316 1 9.48708008086371 7.89365105960614 0.0
467 2 10.2173664405636 7.03861369055242 0.0
158 2 11.2256298054434 7.83493727391608 0.0
468 2 12.5233628169757 7.80087926570592 0.0
417 2 13.7894373383213 7.77644596035531 0.0
809 1 14.8319965769781 7.42562809583141 0.0
563 1 15.4807772267023 7.57608483005043 0.0
671 1 16.1159760263868 7.35523286086977 0.0
760 2 16.0687652084707 8.4869923151534 0.0
774 2 17.1112982692653 7.83932017683885 0.0
177 2 18.1842835165091 7.24495515019864 0.0
1482 1 18.1303747786618 8.32482100734562 0.0
619 2 19.2425318757639 8.16863615830418 0.0
19 1 19.9051910858505 7.27265580383935 0.0
360 1 20.3049390893096 7.81770188833479 0.0
271 2 21.3854077603934 8.10124003503623 0.0
869 1 22.0711343554792 7.26816632648494 0.0
725 1 22.4559676889791 7.83269403956721 0.0
614 2 23.4972144046898 8.22296685866271 0.0
152 1 24.1507943759328 7.33925896717061 0.0
477 1 24.7898525406454 7.1373567780735 0.0
267 1 25.4209253105985 7.35699997993854 0.0
464 2 24.7815941511247 8.25203318727796 0.0
326 2 26.4699235087864 7.05553880524552 0.0
525 2 26.0518540056429 8.26405032284269 0.0
70 2 27.6929675107066 7.10584875078423 0.0
781 1 27.0986415672155 7.99418024833446 0.0
266 2 28.1738307014196 8.31146221089969 0.0
588 1 28.761665286412 7.3916123267018 0.0
4835 1 29.1998047068536 7.92985507411389 0.0
176 1 29.8559133864842 8.09301161956202 0.0
664 1 30.4667251671454 7.81918647663574 0.0
4585 1 32.0927280564269 7.17069847749566 0.0
575 2 31.5389704615222 8.07548588579107 0.0
599 1 32.6151856331353 7.74782133856219 0.0
4978 1 33.3054419802975 7.69861586902701 0.0
343 1 33.0783920071038 8.31547803954789 0.0
294 2 34.1661721038626 7.00576430164222 0.0
182 1 35.0779761632254 7.61446803324641 0.0
635 1 35.3153946852681 8.24685710858904 0.0
576 2 34.2234250672397 8.30729886988353 0.0
438 2 36.1713645350612 7.54849406349445 0.0
442 1 37.7708266776278 7.10536791422444 0.0
644 1 37.253658621671 7.50417488609006 0.0
395 2 38.1841322285547 8.11723126312864 0.0
183 2 38.8729206730172 7.05746766749077 0.0
140 2 39.3967103472847 8.32975190836473 0.0
486 2 40.9739699803013 7.01232740182988 0.0
336 1 39.9457254110125 7.39047461945732 0.0
388 2 40.7270010567008 8.22897342234829 0.0
289 1 41.7926911882837 7.79579413620199 0.0
42 1 42.4842439868857 7.73198797287217 0.0
191 1 43.0272471012703 7.29647549732786 0.0
495 1 43.6916456618923 7.22120580960819 0.0
797 2 43.4531381691041 8.29953017269553 0.0
344 2 44.6456751136035 7.77531030113189 0.0
5552 2 46.5949743051898 6.95094520924924 0.0
4941 1 45.4814325738069 7.08038736200079 0.0
5656 1 45.7718001291325 7.67982241536129 0.0
5055 1 46.3735783250376 8.00546060194066 0.0
389 1 47.094792068714 7.93416466467398 0.0
5951 2 48.0559528580774 7.31397019335439 0.0
5260 2 49.274164803553 7.87730427838972 0.0
553 2 0.659410832384019 8.93656454567184 0.0
302 2 1.95918827156891 8.47300446342811 0.0
5797 2 1.67230235634002 9.67593398605266 0.0
5697 1 2.68326828030635 9.33506488553171 0.0
5748 2 3.29483324331924 8.45392273186716 0.0
5191 2 3.72035904510921 9.67655848650013 0.0
4559 1 4.43915001915313 8.75213090632266 0.0
5146 1 4.74906870455225 9.38719988790793 0.0
660 1 5.13313030450878 8.8663557345434 0.0
659 2 5.81100471819193 9.72686479608634 0.0
510 2 6.17809299850467 8.51412924511094 0.0
310 1 6.86116458487102 9.38442740924397 0.0
205 1 7.22800117244806 8.83244629616772 0.0
5450 1 7.84992691995414 8.60904793485336 0.0
512 2 7.93656999475663 9.69608481859047 0.0
501 2 8.93281281959664 8.88995452677328 0.0
661 1 9.66884855389234 9.7123358340894 0.0
358 2 10.2181130323227 8.71695838925273 0.0
5696 1 11.304432420026 8.95256676428146 0.0
213 1 11.9302873990953 8.72328217236004 0.0
163 1 12.5870954270542 8.9020388677168 0.0
411 1 13.2176843175804 8.69458195399537 0.0
125 1 13.8694792970739 8.8888761458132 0.0
662 2 13.2965193455543 9.79409801866575 0.0
817 1 14.3391752113976 9.4423890693254 0.0
460 2 14.8655002010204 8.49964153905282 0.0
508 2 15.4847785763104 9.65662553491443 0.0
1127 1 16.5822559309845 9.45372117995799 0.0
273 1 17.0280414379666 8.96344251359413 0.0
1010 1 17.4376050409422 9.49451416960983 0.0
230 1 17.6608123812244 8.8054410204268 0.0
258 2 18.6093795421118 9.30731608442317 0.0
365 2 19.8735342047958 9.47189961744241 0.0
313 1 20.3414956642303 8.48718239602434 0.0
469 2 21.148498402634 9.27547398825162 0.0
364 2 22.4420602381019 8.95036567291488 0.0
378 1 23.4998630939813 9.32903852372829 0.0
66 1 24.1447356435224 9.14475410847585 0.0
157 1 23.1133777338703 9.87140915031007 0.0
568 1 24.7929858225071 9.35350405075037 0.0
823 1 25.4404348236442 9.16075824253322 0.0
126 1 26.1036914596971 9.36559554348007 0.0
224 2 27.1792321590688 9.07601369766478 0.0
828 1 28.2530888421691 9.40328711376732 0.0
567 2 29.3188182967282 9.05763649725338 0.0
734 2 30.6345625509501 8.89374966247258 0.0
478 1 31.4165255444597 9.73589517803256 0.0
386 2 32.2789851696334 9.04823813290572 0.0
892 1 33.3648582536837 8.94338615015851 0.0
375 1 33.9158581375156 9.40632191044175 0.0
618 1 33.2779735782813 9.59637662945229 0.0
128 2 35.0151499859249 9.31792350627141 0.0
4917 1 35.8769097339167 8.61010070669228 0.0
593 1 36.1257170472396 9.2249874183456 0.0
380 2 36.9880264013595 8.55881044614654 0.0
945 1 37.9169933758582 9.1506799630851 0.0
684 1 38.1932037536453 9.73746132522902 0.0
127 1 38.6363064546137 9.20389140240695 0.0
649 1 39.5011880136497 9.41327740502734 0.0
592 1 40.1274384325182 9.15909029898916 0.0
739 2 41.1986876598718 9.42330007372693 0.0
394 2 42.2998795777318 8.83167377664862 0.0
434 1 43.2649344098539 9.38492139300596 0.0
5904 1 43.9309617540941 9.28910185709502 0.0
700 1 44.4221211310839 8.83823941397242 0.0
188 2 45.5230058827663 8.73136887426348 0.0
5756 2 46.7888729638947 8.99919901892742 0.0
300 1 47.6553193247277 8.33537646117182 0.0
850 2 47.9517209463454 9.41697371878927 0.0
291 1 48.3266444673338 8.39889664264661 0.0
5308 2 49.1697993264205 9.16705870884428 0.0
5747 2 0.612162998836363 10.2548771790568 0.0
4254 1 1.62267135163323 10.7640206437197 0.0
5750 2 2.68689514650539 10.4425626321226 0.0
5498 1 3.74060223676615 10.7834532839531 0.0
256 2 4.79659276702511 10.4771729367356 0.0
706 1 5.85354713139713 10.8282563895123 0.0
5849 1 6.8710430488835 10.0481716085993 0.0
420 1 6.48904069606182 10.6024464932893 0.0
54 2 7.55775275725348 10.8928221667787 0.0
455 1 8.65058039146233 10.5244384572888 0.0
5950 1 8.62804937999296 11.1841084549028 0.0
6899 1 9.03851819189281 9.97687187365945 0.0
657 2 9.74189277137341 10.8357738483647 0.0
557 2 10.753572211672 9.89955389418968 0.0
569 1 10.8803591861411 10.9676131651486 0.0
761 1 11.5137428120685 10.784867839163 0.0
314 2 12.0343960921364 9.83459974165599 0.0
858 1 12.1801903277078 10.9287637012154 0.0
710 1 12.814693615114 10.7419680265678 0.0
6550 1 13.5005300177969 10.8885559368752 0.0
321 2 14.5526952596081 10.5237579197115 0.0
764 1 15.6849688815141 10.7653369782391 0.0
910 2 16.7865899669652 10.5085134955998 0.0
4915 2 18.0198843405933 10.431245048526 0.0
272 1 19.1054389396639 10.2647729939213 0.0
456 1 19.6916634018019 10.567869709309 0.0
118 1 19.9696121798294 11.1743655661522 0.0
255 2 20.7765083846845 10.4282914157456 0.0
529 2 22.0639732377655 10.1657070871721 0.0
1028 1 22.7159997157887 11.0844765907067 0.0
929 1 23.1135995154149 10.5530869583779 0.0
1115 2 24.163079604246 10.256945332619 0.0
526 2 25.4521666454214 10.2517947408708 0.0
227 1 24.8218278134651 11.1478103425672 0.0
383 1 26.5047296057931 9.92045177325891 0.0
472 2 26.5600989656133 11.0066479870434 0.0
578 2 27.5877526384685 10.2820878904978 0.0
1035 2 28.6482134482782 11.0647339317372 0.0
620 1 28.647892570195 9.9502476824189 0.0
692 1 29.2807797486337 10.1819533333287 0.0
674 2 29.9069685846299 11.1806607474692 0.0
928 2 30.3486492621836 10.0525994316084 0.0
72 1 30.975840019973 10.9628818535939 0.0
669 1 31.3759597321113 10.4226992074569 0.0
133 2 32.4455674761422 10.2669009580761 0.0
237 1 33.5501615517416 10.2130277971417 0.0
785 1 34.1979362907485 10.0632329483557 0.0
487 1 34.3103252936308 10.906541073345 0.0
693 1 34.7782730521341 10.4096208368692 0.0
540 2 35.8774712828484 10.2735993884823 0.0
640 1 36.7312139848258 10.9756421317658 0.0
484 2 37.0514377719667 9.83938175029587 0.0
600 2 37.8527353098134 10.7666430366601 0.0
491 2 39.0498605933025 10.3958410882579 0.0
337 2 40.2696129608192 10.2530547466126 0.0
846 1 42.1382956484559 9.98163102440341 0.0
845 2 41.3892622078754 10.7940235116604 0.0
339 1 42.7897062729568 9.85576293714865 0.0
5601 2 42.6811870334468 10.9736791475196 0.0
650 2 43.7717400304846 10.3719576955116 0.0
500 2 44.8994958311246 9.82264427029131 0.0
544 1 44.7343962858181 10.9080037431296 0.0
938 1 45.3873279263414 10.8106607814171 0.0
5764 1 45.9955557731522 9.71820832529808 0.0
743 1 45.8723954368476 10.3592660766126 0.0
1000 2 46.9791561474936 10.2544993830137 0.0
5412 1 48.0558328832205 10.4886934932573 0.0
5557 2 49.1349605763563 10.5055055840206 0.0
6210 1 48.7163284539375 11.5689442347888 0.0
965 2 0.992986016682806 11.6496140875518 0.0
853 1 1.6533855323346 12.5494925275262 0.0
5694 2 2.2950493451715 11.658116054181 0.0
612 1 3.35195251725024 11.3288234780844 0.0
803 2 3.34393960144524 12.4292541505583 0.0
956 2 4.40869454152066 11.6747908677232 0.0
406 1 5.46652533386574 11.3720083185232 0.0
6196 2 5.51004450553624 12.4716799011994 0.0
502 2 6.53517514388721 11.7054689115753 0.0
711 1 7.22170405044938 12.5575339746061 0.0
457 1 7.60621344042758 12.0026651014819 0.0
552 1 8.22988072775584 11.7403669616016 0.0
808 2 9.27245356946317 12.046330187223 0.0
709 2 10.4674002914232 11.9392719391413 0.0
412 2 11.6681113890244 11.8810100781031 0.0
610 2 12.9128579004798 11.8191476811082 0.0
810 2 14.2432503227721 11.753396668895 0.0
4968 1 15.3110917101208 11.3369027425174 0.0
165 1 15.336305949623 12.0126460445089 0.0
517 2 16.3981854863066 11.6750581308975 0.0
911 1 17.4179293885959 12.106170125366 0.0
370 1 17.5406508302252 11.4342045040094 0.0
419 1 18.0776886828 12.0610433442117 0.0
372 1 18.6764357878819 12.4030253144392 0.0
1014 2 18.8800908678436 11.3337503690361 0.0
424 2 19.7727057220283 12.2530618535766 0.0
208 1 20.5591082640727 11.4922542053209 0.0
4617 1 20.864320462296 12.082127549509 0.0
868 2 21.6477494931095 11.3285759778363 0.0
1062 1 22.6596528387919 11.7535389418253 0.0
666 2 21.8689481831815 12.5477007263286 0.0
872 1 22.9604402341733 12.3469119292343 0.0
862 2 23.7505324665126 11.5184802286277 0.0
719 1 25.5063661423369 11.3350591130491 0.0
668 2 24.9093801289899 12.2289429405254 0.0
415 1 25.9275640680337 11.8828324755419 0.0
527 2 26.951615708331 12.2756841010722 0.0
516 1 27.5952390179495 11.3849457295543 0.0
720 1 27.9857388417125 11.9358291275984 0.0
863 1 28.6147077116703 12.1673612653218 0.0
922 1 29.2590964302714 12.0278079072231 0.0
421 1 29.9000567449117 12.2826416050631 0.0
830 1 30.9171925885569 11.6408993202309 0.0
631 1 30.5510071379951 12.197999850687 0.0
283 2 31.9773811841901 11.3852219585337 0.0
333 1 32.6609997375007 12.2243628155605 0.0
542 2 31.5841607635435 12.5622391935865 0.0
732 2 33.2550917170744 11.2777197627897 0.0
384 2 33.7065601538484 12.5529702964503 0.0
1038 1 34.2956580340803 11.6134682760611 0.0
238 2 35.3507903407684 11.3575616683884 0.0
189 2 34.9498206042676 12.5355519660167 0.0
234 1 36.4299819507674 11.6255563818439 0.0
1146 1 36.0258793151211 12.2055328069958 0.0
793 2 37.0265587539115 12.6307331421135 0.0
287 1 37.1043707536314 11.5466753968367 0.0
587 1 37.7403534531116 11.8428865377282 0.0
641 1 38.0902765847041 12.4472281601485 0.0
697 2 38.7961017390875 11.6141102113038 0.0
440 2 39.7920379186682 12.3746169394482 0.0
682 1 39.8040863532038 11.240643311626 0.0
683 1 40.4526113351647 11.3852262505047 0.0
448 1 40.7979739160802 11.9578502564577 0.0
591 2 41.8690192345066 11.9435064440275 0.0
5707 1 42.9390688933889 12.0685985513847 0.0
647 2 43.9327832151198 11.6269823713374 0.0
596 1 43.3772902007901 12.5732336148974 0.0
590 2 45.2414697282194 11.8963373723674 0.0
696 2 46.3508997102284 11.3290199581735 0.0
549 1 46.2040731192871 12.429049516891 0.0
5710 1 46.8522407793553 12.2808973250353 0.0
5356 2 47.600911938232 11.4609701371805 0.0
5403 1 49.4130332299623 11.5744930354088 0.0
5554 2 49.0848543587372 12.6256260890981 0.0
6348 1 1.0052030548502 12.741788014303 0.0
902 1 0.598734809982262 13.2675581888391 0.0
5649 2 1.64253360502259 13.6552232883703 0.0
5046 1 2.29917105391681 12.7726669778869 0.0
814 1 2.70204267139943 13.3295202855498 0.0
4856 1 4.38726680311394 12.7606933937225 0.0
505 2 3.75246596786185 13.7078379863262 0.0
5799 2 5.02474892877957 13.6199944149693 0.0
1203 1 6.58666094055232 12.8465395378132 0.0
908 2 6.21848922821539 13.9193469219727 0.0
656 2 7.42318146986971 13.6198559257752 0.0
816 2 8.33753877553316 12.8341806010444 0.0
253 1 8.47762398040673 13.922376290947 0.0
1156 1 9.09862855289303 13.7361513591228 0.0
1052 1 9.38626407390827 13.1426571786661 0.0
1001 1 9.99056920862861 12.887691817489 0.0
807 2 10.1609987511045 13.9491755694988 0.0
855 2 11.0764135590616 13.0798236806173 0.0
766 2 12.3005401038519 12.9665304565312 0.0
1002 1 11.8814882476106 14.0007921902803 0.0
762 2 12.9789484917748 14.0088312098135 0.0
462 2 13.544773601815 12.8866907922008 0.0
5900 1 14.1274583538408 13.8439069059252 0.0
215 1 15.7585079647356 12.5557990984159 0.0
459 2 14.7559992952938 12.9463736038125 0.0
857 2 15.7487737333336 13.6793564217245 0.0
1158 1 16.9926040107122 12.6186322292867 0.0
912 1 16.3753933127845 12.8158239196904 0.0
623 2 16.9327519612225 14.0018847467476 0.0
913 2 17.9063278876507 13.1730789411844 0.0
721 1 18.9129998361399 13.6617256047996 0.0
564 1 18.9906713778592 13.0021823415165 0.0
663 2 19.994899234129 13.4958214768934 0.0
813 1 20.775725862625 12.7351055344264 0.0
726 1 21.0899562395765 13.3209927283755 0.0
305 1 20.9886634015787 13.9761808770945 0.0
715 2 22.0835430124774 13.8018034155625 0.0